# Model for PE

      9778     atoms
      8064     bonds

       129     atom types
         1     bond types

    0.0000  146.2297 xlo xhi
    0.0000  146.2297 ylo yhi
    0.0000  146.2297 zlo zhi

Masses

         1          56.00
         2          56.00
         3          56.00
         4          56.00
         5          56.00
         6          56.00
         7          56.00
         8          56.00
         9          56.00
        10          56.00
        11          56.00
        12          56.00
        13          56.00
        14          56.00
        15          56.00
        16          56.00
        17          56.00
        18          56.00
        19          56.00
        20          56.00
        21          56.00
        22          56.00
        23          56.00
        24          56.00
        25          56.00
        26          56.00
        27          56.00
        28          56.00
        29          56.00
        30          56.00
        31          56.00
        32          56.00
        33          56.00
        34          56.00
        35          56.00
        36          56.00
        37          56.00
        38          56.00
        39          56.00
        40          56.00
        41          56.00
        42          56.00
        43          56.00
        44          56.00
        45          56.00
        46          56.00
        47          56.00
        48          56.00
        49          56.00
        50          56.00
        51          56.00
        52          56.00
        53          56.00
        54          56.00
        55          56.00
        56          56.00
        57          56.00
        58          56.00
        59          56.00
        60          56.00
        61          56.00
        62          56.00
        63          56.00
        64          56.00
        65          56.00
        66          56.00
        67          56.00
        68          56.00
        69          56.00
        70          56.00
        71          56.00
        72          56.00
        73          56.00
        74          56.00
        75          56.00
        76          56.00
        77          56.00
        78          56.00
        79          56.00
        80          56.00
        81          56.00
        82          56.00
        83          56.00
        84          56.00
        85          56.00
        86          56.00
        87          56.00
        88          56.00
        89          56.00
        90          56.00
        91          56.00
        92          56.00
        93          56.00
        94          56.00
        95          56.00
        96          56.00
        97          56.00
        98          56.00
        99          56.00
       100          56.00
       101          56.00
       102          56.00
       103          56.00
       104          56.00
       105          56.00
       106          56.00
       107          56.00
       108          56.00
       109          56.00
       110          56.00
       111          56.00
       112          56.00
       113          56.00
       114          56.00
       115          56.00
       116          56.00
       117          56.00
       118          56.00
       119          56.00
       120          56.00
       121          56.00
       122          56.00
       123          56.00
       124          56.00
       125          56.00
       126          56.00
       127          56.00
       128          56.00
       129          52.50

Atoms

         1         1         1  112.9957  139.5829   33.2340
         2         1         1  109.6723  142.9063   33.2340
         3         1         1  106.3489  139.5829   33.2340
         4         1         1  109.6723  139.5829   36.5574
         5         1         1  112.9957  136.2595   36.5574
         6         1         1  112.9957  139.5829   39.8808
         7         1         1  109.6723  142.9063   39.8808
         8         1         1  106.3489  142.9063   43.2042
         9         1         1  106.3489  139.5829   46.5276
        10         1         1  103.0255  136.2595   46.5276
        11         1         1   99.7021  139.5829   46.5276
        12         1         1  103.0255  142.9063   46.5276
        13         1         1  106.3489  142.9063   49.8510
        14         1         1  103.0255    0.0000   49.8510
        15         1         1   99.7021  142.9063   49.8510
        16         1         1  103.0255  139.5829   49.8510
        17         1         1  106.3489  139.5829   53.1744
        18         1         1  103.0255  139.5829   56.4978
        19         1         1  106.3489  142.9063   56.4978
        20         1         1  103.0255  142.9063   59.8212
        21         1         1   99.7021    0.0000   59.8212
        22         1         1   99.7021  142.9063   63.1446
        23         1         1  103.0255  142.9063   66.4680
        24         1         1  103.0255  139.5829   63.1446
        25         1         1  106.3489  139.5829   59.8212
        26         1         1  106.3489  142.9063   63.1446
        27         1         1  109.6723  142.9063   66.4680
        28         1         1  112.9957  142.9063   63.1446
        29         1         1  112.9957    0.0000   59.8212
        30         1         1  116.3191    0.0000   56.4978
        31         1         1  119.6425    0.0000   59.8212
        32         1         1  122.9659    3.3234   59.8212
        33         1         1  126.2893    3.3234   56.4978
        34         1         1  122.9659    0.0000   56.4978
        35         1         1  126.2893  142.9063   56.4978
        36         1         1  129.6127  142.9063   59.8212
        37         1         1  126.2893  139.5829   59.8212
        38         1         1  129.6127  139.5829   63.1446
        39         1         1  132.9361  142.9063   63.1446
        40         1         1  136.2595  142.9063   66.4680
        41         1         1  139.5829    0.0000   66.4680
        42         1         1  139.5829  142.9063   69.7914
        43         1         1  142.9063  142.9063   66.4680
        44         1         1    0.0000  142.9063   69.7914
        45         1         1    0.0000    0.0000   66.4680
        46         1         1    3.3234  142.9063   66.4680
        47         1         1    3.3234  139.5829   69.7914
        48         1         1    6.6468  136.2595   69.7914
        49         1         1    6.6468  139.5829   66.4680
        50         1         1    3.3234  139.5829   63.1446
        51         1         1    6.6468  139.5829   59.8212
        52         1         1    3.3234  142.9063   59.8212
        53         1         1    3.3234    0.0000   63.1446
        54         1         1    0.0000    3.3234   63.1446
        55         1         1  142.9063    3.3234   66.4680
        56         1         1  142.9063    6.6468   63.1446
        57         1         1  139.5829    6.6468   66.4680
        58         1         1  139.5829    9.9702   69.7914
        59         1         1  136.2595    9.9702   66.4680
        60         1         1  136.2595    6.6468   69.7914
        61         1         1  132.9361    6.6468   73.1148
        62         1         1  129.6127    3.3234   73.1148
        63         1         1  126.2893    3.3234   69.7914
        64         1         1  122.9659    6.6468   69.7914
        65         2         2   29.9106  116.3191  132.9361
        66         2         2   29.9106  119.6425  136.2595
        67         2         2   33.2340  122.9659  136.2595
        68         2         2   29.9106  122.9659  132.9361
        69         2         2   29.9106  126.2893  136.2595
        70         2         2   29.9106  129.6127  132.9361
        71         2         2   26.5872  132.9361  132.9361
        72         2         2   26.5872  129.6127  129.6127
        73         2         2   23.2638  126.2893  129.6127
        74         2         2   23.2638  122.9659  126.2893
        75         2         2   26.5872  119.6425  126.2893
        76         2         2   29.9106  122.9659  126.2893
        77         2         2   33.2340  119.6425  126.2893
        78         2         2   33.2340  122.9659  129.6127
        79         2         2   33.2340  119.6425  132.9361
        80         2         2   29.9106  119.6425  129.6127
        81         2         2   26.5872  119.6425  132.9361
        82         2         2   23.2638  116.3191  132.9361
        83         2         2   19.9404  116.3191  136.2595
        84         2         2   19.9404  119.6425  139.5829
        85         2         2   19.9404  116.3191  142.9063
        86         2         2   16.6170  119.6425  142.9063
        87         2         2   16.6170  116.3191  139.5829
        88         2         2   13.2936  119.6425  139.5829
        89         2         2   16.6170  122.9659  139.5829
        90         2         2   16.6170  119.6425  136.2595
        91         2         2   19.9404  122.9659  136.2595
        92         2         2   16.6170  122.9659  132.9361
        93         2         2   13.2936  119.6425  132.9361
        94         2         2   13.2936  116.3191  136.2595
        95         2         2    9.9702  116.3191  132.9361
        96         2         2    9.9702  119.6425  129.6127
        97         2         2    6.6468  119.6425  126.2893
        98         2         2    6.6468  122.9659  129.6127
        99         2         2    9.9702  122.9659  126.2893
       100         2         2   13.2936  126.2893  126.2893
       101         2         2   13.2936  122.9659  122.9659
       102         2         2    9.9702  122.9659  119.6425
       103         2         2    9.9702  119.6425  122.9659
       104         2         2    6.6468  122.9659  122.9659
       105         2         2    3.3234  122.9659  119.6425
       106         2         2    3.3234  119.6425  116.3191
       107         2         2    0.0000  119.6425  112.9957
       108         2         2    3.3234  122.9659  112.9957
       109         2         2    6.6468  122.9659  116.3191
       110         2         2    9.9702  126.2893  116.3191
       111         2         2   13.2936  126.2893  119.6425
       112         2         2   16.6170  126.2893  116.3191
       113         2         2   19.9404  129.6127  116.3191
       114         2         2   19.9404  126.2893  112.9957
       115         2         2   19.9404  122.9659  116.3191
       116         2         2   19.9404  119.6425  112.9957
       117         2         2   23.2638  119.6425  109.6723
       118         2         2   19.9404  122.9659  109.6723
       119         2         2   16.6170  119.6425  109.6723
       120         2         2   16.6170  122.9659  106.3489
       121         2         2   16.6170  126.2893  109.6723
       122         2         2   13.2936  122.9659  109.6723
       123         2         2   13.2936  119.6425  112.9957
       124         2         2   16.6170  122.9659  112.9957
       125         2         2   13.2936  126.2893  112.9957
       126         2         2   13.2936  129.6127  109.6723
       127         2         2    9.9702  132.9361  109.6723
       128         2         2    9.9702  129.6127  106.3489
       129         3         3   79.7616  136.2595  142.9063
       130         3         3   79.7616  139.5829    0.0000
       131         3         3   76.4382  142.9063    0.0000
       132         3         3   76.4382  139.5829    3.3234
       133         3         3   76.4382  136.2595    0.0000
       134         3         3   76.4382  132.9361    3.3234
       135         3         3   76.4382  136.2595    6.6468
       136         3         3   79.7616  139.5829    6.6468
       137         3         3   79.7616  136.2595    3.3234
       138         3         3   79.7616  132.9361    6.6468
       139         3         3   83.0850  132.9361    9.9702
       140         3         3   86.4084  132.9361    6.6468
       141         3         3   83.0850  136.2595    6.6468
       142         3         3   79.7616  136.2595    9.9702
       143         3         3   76.4382  139.5829    9.9702
       144         3         3   76.4382  142.9063   13.2936
       145         3         3   79.7616  139.5829   13.2936
       146         3         3   79.7616  142.9063   16.6170
       147         3         3   83.0850  142.9063   19.9404
       148         3         3   83.0850  139.5829   23.2638
       149         3         3   79.7616  139.5829   26.5872
       150         3         3   83.0850  142.9063   26.5872
       151         3         3   86.4084  139.5829   26.5872
       152         3         3   86.4084  136.2595   23.2638
       153         3         3   89.7318  132.9361   23.2638
       154         3         3   89.7318  136.2595   19.9404
       155         3         3   93.0552  132.9361   19.9404
       156         3         3   93.0552  136.2595   16.6170
       157         3         3   89.7318  136.2595   13.2936
       158         3         3   89.7318  139.5829   16.6170
       159         3         3   86.4084  139.5829   19.9404
       160         3         3   86.4084  142.9063   23.2638
       161         3         3   89.7318  142.9063   26.5872
       162         3         3   93.0552  139.5829   26.5872
       163         3         3   93.0552  136.2595   29.9106
       164         3         3   96.3786  132.9361   29.9106
       165         3         3   93.0552  129.6127   29.9106
       166         3         3   93.0552  132.9361   33.2340
       167         3         3   96.3786  129.6127   33.2340
       168         3         3   96.3786  126.2893   36.5574
       169         3         3   93.0552  129.6127   36.5574
       170         3         3   89.7318  129.6127   39.8808
       171         3         3   86.4084  129.6127   36.5574
       172         3         3   89.7318  126.2893   36.5574
       173         3         3   86.4084  126.2893   33.2340
       174         3         3   89.7318  122.9659   33.2340
       175         3         3   86.4084  122.9659   29.9106
       176         3         3   83.0850  126.2893   29.9106
       177         3         3   79.7616  126.2893   26.5872
       178         3         3   79.7616  129.6127   29.9106
       179         3         3   83.0850  129.6127   26.5872
       180         3         3   86.4084  129.6127   29.9106
       181         3         3   89.7318  132.9361   29.9106
       182         3         3   89.7318  136.2595   26.5872
       183         3         3   86.4084  132.9361   26.5872
       184         3         3   83.0850  136.2595   26.5872
       185         3         3   86.4084  136.2595   29.9106
       186         3         3   89.7318  139.5829   29.9106
       187         3         3   93.0552  139.5829   33.2340
       188         3         3   93.0552  142.9063   36.5574
       189         3         3   96.3786  142.9063   33.2340
       190         3         3   93.0552    0.0000   33.2340
       191         3         3   93.0552    3.3234   36.5574
       192         3         3   96.3786    6.6468   36.5574
       193         4         4   43.2042   43.2042   86.4084
       194         4         4   39.8808   39.8808   86.4084
       195         4         4   36.5574   43.2042   86.4084
       196         4         4   39.8808   43.2042   83.0850
       197         4         4   43.2042   39.8808   83.0850
       198         4         4   39.8808   39.8808   79.7616
       199         4         4   43.2042   43.2042   79.7616
       200         4         4   39.8808   43.2042   76.4382
       201         4         4   39.8808   46.5276   79.7616
       202         4         4   36.5574   46.5276   83.0850
       203         4         4   36.5574   49.8510   79.7616
       204         4         4   33.2340   46.5276   79.7616
       205         4         4   33.2340   49.8510   76.4382
       206         4         4   29.9106   49.8510   79.7616
       207         4         4   33.2340   49.8510   83.0850
       208         4         4   36.5574   53.1744   83.0850
       209         4         4   36.5574   49.8510   86.4084
       210         4         4   33.2340   49.8510   89.7318
       211         4         4   33.2340   53.1744   93.0552
       212         4         4   29.9106   53.1744   96.3786
       213         4         4   29.9106   49.8510   93.0552
       214         4         4   33.2340   46.5276   93.0552
       215         4         4   29.9106   46.5276   96.3786
       216         4         4   29.9106   43.2042   93.0552
       217         4         4   26.5872   39.8808   93.0552
       218         4         4   29.9106   39.8808   89.7318
       219         4         4   33.2340   39.8808   93.0552
       220         4         4   29.9106   39.8808   96.3786
       221         4         4   33.2340   39.8808   99.7021
       222         4         4   29.9106   39.8808  103.0255
       223         4         4   33.2340   36.5574  103.0255
       224         4         4   33.2340   33.2340   99.7021
       225         4         4   36.5574   29.9106   99.7021
       226         4         4   39.8808   29.9106  103.0255
       227         4         4   36.5574   29.9106  106.3489
       228         4         4   36.5574   26.5872  103.0255
       229         4         4   33.2340   26.5872   99.7021
       230         4         4   29.9106   23.2638   99.7021
       231         4         4   29.9106   19.9404  103.0255
       232         4         4   26.5872   19.9404   99.7021
       233         4         4   29.9106   16.6170   99.7021
       234         4         4   29.9106   19.9404   96.3786
       235         4         4   33.2340   16.6170   96.3786
       236         4         4   36.5574   16.6170   93.0552
       237         4         4   39.8808   19.9404   93.0552
       238         4         4   39.8808   16.6170   89.7318
       239         4         4   36.5574   13.2936   89.7318
       240         4         4   39.8808   13.2936   93.0552
       241         4         4   39.8808    9.9702   96.3786
       242         4         4   36.5574    6.6468   96.3786
       243         4         4   33.2340    6.6468   93.0552
       244         4         4   36.5574    6.6468   89.7318
       245         4         4   39.8808    9.9702   89.7318
       246         4         4   43.2042    6.6468   89.7318
       247         4         4   46.5276    6.6468   86.4084
       248         4         4   43.2042    3.3234   86.4084
       249         4         4   39.8808    3.3234   83.0850
       250         4         4   39.8808    0.0000   86.4084
       251         4         4   36.5574    3.3234   86.4084
       252         4         4   33.2340    3.3234   83.0850
       253         4         4   33.2340    6.6468   86.4084
       254         4         4   29.9106    3.3234   86.4084
       255         4         4   26.5872    6.6468   86.4084
       256         4         4   26.5872    3.3234   89.7318
       257         5         5  129.6127  116.3191   73.1148
       258         5         5  132.9361  116.3191   76.4382
       259         5         5  132.9361  119.6425   73.1148
       260         5         5  136.2595  119.6425   69.7914
       261         5         5  136.2595  122.9659   66.4680
       262         5         5  132.9361  122.9659   69.7914
       263         5         5  129.6127  122.9659   66.4680
       264         5         5  132.9361  119.6425   66.4680
       265         5         5  129.6127  119.6425   63.1446
       266         5         5  126.2893  122.9659   63.1446
       267         5         5  122.9659  122.9659   59.8212
       268         5         5  122.9659  119.6425   63.1446
       269         5         5  122.9659  116.3191   59.8212
       270         5         5  119.6425  112.9957   59.8212
       271         5         5  119.6425  109.6723   63.1446
       272         5         5  122.9659  106.3489   63.1446
       273         5         5  122.9659  103.0255   59.8212
       274         5         5  119.6425  103.0255   56.4978
       275         5         5  119.6425   99.7021   53.1744
       276         5         5  116.3191   96.3786   53.1744
       277         5         5  116.3191   93.0552   56.4978
       278         5         5  116.3191   89.7318   53.1744
       279         5         5  112.9957   89.7318   56.4978
       280         5         5  116.3191   86.4084   56.4978
       281         5         5  116.3191   83.0850   53.1744
       282         5         5  112.9957   83.0850   56.4978
       283         5         5  109.6723   83.0850   53.1744
       284         5         5  109.6723   86.4084   49.8510
       285         5         5  106.3489   86.4084   46.5276
       286         5         5  109.6723   89.7318   46.5276
       287         5         5  112.9957   89.7318   49.8510
       288         5         5  116.3191   86.4084   49.8510
       289         5         5  119.6425   89.7318   49.8510
       290         5         5  122.9659   89.7318   53.1744
       291         5         5  122.9659   86.4084   49.8510
       292         5         5  119.6425   86.4084   46.5276
       293         5         5  116.3191   83.0850   46.5276
       294         5         5  112.9957   83.0850   43.2042
       295         5         5  109.6723   83.0850   46.5276
       296         5         5  106.3489   79.7616   46.5276
       297         5         5  109.6723   79.7616   43.2042
       298         5         5  106.3489   76.4382   43.2042
       299         5         5  109.6723   76.4382   39.8808
       300         5         5  112.9957   73.1148   39.8808
       301         5         5  112.9957   69.7914   36.5574
       302         5         5  109.6723   69.7914   33.2340
       303         5         5  109.6723   73.1148   29.9106
       304         5         5  106.3489   76.4382   29.9106
       305         5         5  103.0255   73.1148   29.9106
       306         5         5  106.3489   69.7914   29.9106
       307         5         5  106.3489   66.4680   26.5872
       308         5         5  109.6723   63.1446   26.5872
       309         5         5  112.9957   63.1446   29.9106
       310         5         5  112.9957   66.4680   26.5872
       311         5         5  112.9957   69.7914   29.9106
       312         5         5  116.3191   73.1148   29.9106
       313         5         5  116.3191   69.7914   33.2340
       314         5         5  116.3191   66.4680   29.9106
       315         5         5  112.9957   66.4680   33.2340
       316         5         5  116.3191   63.1446   33.2340
       317         5         5  119.6425   66.4680   33.2340
       318         5         5  122.9659   63.1446   33.2340
       319         5         5  126.2893   66.4680   33.2340
       320         5         5  126.2893   69.7914   29.9106
       321         6         6    6.6468  139.5829  132.9361
       322         6         6    3.3234  142.9063  132.9361
       323         6         6    3.3234  139.5829  129.6127
       324         6         6    0.0000  142.9063  129.6127
       325         6         6    3.3234    0.0000  129.6127
       326         6         6    3.3234    3.3234  126.2893
       327         6         6    3.3234    0.0000  122.9659
       328         6         6    6.6468  142.9063  122.9659
       329         6         6    9.9702  142.9063  126.2893
       330         6         6    9.9702  139.5829  122.9659
       331         6         6    6.6468  136.2595  122.9659
       332         6         6    6.6468  139.5829  126.2893
       333         6         6    3.3234  139.5829  122.9659
       334         6         6    3.3234  142.9063  126.2893
       335         6         6    0.0000  139.5829  126.2893
       336         6         6    3.3234  136.2595  126.2893
       337         6         6    0.0000  136.2595  129.6127
       338         6         6  142.9063  132.9361  129.6127
       339         6         6  139.5829  132.9361  132.9361
       340         6         6  139.5829  136.2595  129.6127
       341         6         6  136.2595  136.2595  132.9361
       342         6         6  132.9361  139.5829  132.9361
       343         6         6  129.6127  136.2595  132.9361
       344         6         6  132.9361  136.2595  129.6127
       345         6         6  132.9361  132.9361  126.2893
       346         6         6  129.6127  132.9361  129.6127
       347         6         6  126.2893  136.2595  129.6127
       348         6         6  122.9659  132.9361  129.6127
       349         6         6  119.6425  136.2595  129.6127
       350         6         6  122.9659  136.2595  132.9361
       351         6         6  122.9659  132.9361  136.2595
       352         6         6  122.9659  136.2595  139.5829
       353         6         6  126.2893  136.2595  142.9063
       354         6         6  122.9659  136.2595    0.0000
       355         6         6  122.9659  132.9361  142.9063
       356         6         6  126.2893  129.6127  142.9063
       357         6         6  129.6127  129.6127  139.5829
       358         6         6  129.6127  126.2893  136.2595
       359         6         6  129.6127  129.6127  132.9361
       360         6         6  129.6127  126.2893  129.6127
       361         6         6  129.6127  122.9659  132.9361
       362         6         6  126.2893  122.9659  136.2595
       363         6         6  126.2893  126.2893  139.5829
       364         6         6  122.9659  126.2893  142.9063
       365         6         6  122.9659  122.9659    0.0000
       366         6         6  119.6425  126.2893    0.0000
       367         6         6  116.3191  122.9659    0.0000
       368         6         6  112.9957  122.9659  142.9063
       369         6         6  112.9957  119.6425    0.0000
       370         6         6  116.3191  116.3191    0.0000
       371         6         6  119.6425  116.3191    3.3234
       372         6         6  119.6425  119.6425    6.6468
       373         6         6  116.3191  122.9659    6.6468
       374         6         6  119.6425  122.9659    9.9702
       375         6         6  119.6425  126.2893    6.6468
       376         6         6  122.9659  129.6127    6.6468
       377         6         6  122.9659  126.2893    9.9702
       378         6         6  122.9659  129.6127   13.2936
       379         6         6  126.2893  129.6127   16.6170
       380         6         6  126.2893  126.2893   19.9404
       381         6         6  126.2893  129.6127   23.2638
       382         6         6  129.6127  132.9361   23.2638
       383         6         6  126.2893  132.9361   19.9404
       384         6         6  129.6127  136.2595   19.9404
       385         7         7   23.2638   39.8808   69.7914
       386         7         7   23.2638   43.2042   66.4680
       387         7         7   26.5872   39.8808   66.4680
       388         7         7   26.5872   43.2042   63.1446
       389         7         7   29.9106   39.8808   63.1446
       390         7         7   26.5872   36.5574   63.1446
       391         7         7   29.9106   33.2340   63.1446
       392         7         7   29.9106   29.9106   59.8212
       393         7         7   26.5872   33.2340   59.8212
       394         7         7   29.9106   36.5574   59.8212
       395         7         7   29.9106   33.2340   56.4978
       396         7         7   33.2340   33.2340   53.1744
       397         7         7   33.2340   36.5574   49.8510
       398         7         7   36.5574   33.2340   49.8510
       399         7         7   36.5574   36.5574   46.5276
       400         7         7   39.8808   36.5574   43.2042
       401         7         7   43.2042   39.8808   43.2042
       402         7         7   43.2042   43.2042   39.8808
       403         7         7   39.8808   43.2042   43.2042
       404         7         7   39.8808   39.8808   46.5276
       405         7         7   43.2042   36.5574   46.5276
       406         7         7   46.5276   36.5574   43.2042
       407         7         7   49.8510   33.2340   43.2042
       408         7         7   46.5276   29.9106   43.2042
       409         7         7   46.5276   26.5872   46.5276
       410         7         7   43.2042   26.5872   49.8510
       411         7         7   39.8808   26.5872   46.5276
       412         7         7   43.2042   23.2638   46.5276
       413         7         7   43.2042   19.9404   49.8510
       414         7         7   46.5276   16.6170   49.8510
       415         7         7   46.5276   19.9404   53.1744
       416         7         7   43.2042   16.6170   53.1744
       417         7         7   43.2042   13.2936   49.8510
       418         7         7   46.5276    9.9702   49.8510
       419         7         7   49.8510    9.9702   53.1744
       420         7         7   49.8510   13.2936   56.4978
       421         7         7   53.1744   13.2936   59.8212
       422         7         7   49.8510   13.2936   63.1446
       423         7         7   49.8510   16.6170   66.4680
       424         7         7   46.5276   19.9404   66.4680
       425         7         7   43.2042   19.9404   69.7914
       426         7         7   46.5276   16.6170   69.7914
       427         7         7   43.2042   13.2936   69.7914
       428         7         7   46.5276   13.2936   66.4680
       429         7         7   46.5276    9.9702   63.1446
       430         7         7   49.8510    6.6468   63.1446
       431         7         7   46.5276    6.6468   59.8212
       432         7         7   43.2042    6.6468   63.1446
       433         7         7   46.5276    6.6468   66.4680